63
conf-2-3.log	Energy: -5234462.4034636
C         -0.1844480000        3.5884710000        1.9053340000
C          1.0250810000        3.0606730000        1.1047000000
C          0.4190710000        2.1444050000        0.0107770000
C         -1.1147580000        2.1332870000        0.2257890000
C         -1.3136430000        2.5796050000        1.6701370000
H         -0.5011950000        4.5442200000        1.4751370000
H         -1.4969640000        1.1318900000        0.0522260000
H          0.0399090000        3.7673160000        2.9603170000
H          1.6095450000        3.8793480000        0.6830070000
H          0.7637170000        1.1194610000        0.1750920000
H         -2.3023060000        3.0111580000        1.8298130000
C         -3.9234040000       -0.1144130000       -1.0416090000
C         -4.3461950000        1.2681370000       -1.6555290000
C         -5.8991440000        1.2120780000       -1.7820620000
C         -6.2643260000        0.2009870000       -0.7005620000
C         -5.2396670000       -0.8963770000       -0.9787530000
H         -6.1763870000        0.8375010000       -2.7728510000
H         -6.0795500000        0.6338720000        0.2889760000
H         -5.4612970000       -1.3109480000       -1.9685690000
H         -3.5222670000        0.0175410000       -0.0345080000
H         -3.8652460000        1.4471700000       -2.6185490000
H         -6.3694050000        2.1872810000       -1.6438110000
S         -3.9755320000        2.7193730000       -0.5779600000
S         -2.0199240000        3.2324650000       -0.9552250000
S         -2.7048670000       -1.0931230000       -2.0112930000
S         -1.1247560000        1.2238890000        2.9187240000
C          4.0264390000        0.8590870000        0.1612250000
C          5.4752970000        0.4024700000       -0.0436710000
C          5.4274440000       -0.2824200000       -1.4114640000
C          4.7039880000        0.7640800000       -2.2468690000
C          3.5221380000        1.1299770000       -1.3139260000
H          4.8157390000       -1.1894340000       -1.3470790000
H          4.3534680000        0.3939120000       -3.2110780000
H          5.3506260000        1.6310670000       -2.4238870000
H          2.6926880000        0.4462590000       -1.5141130000
H          3.4345540000        0.0541000000        0.6063500000
H          6.1144450000        1.2872740000       -0.1463190000
S          0.8443100000        2.5323330000       -1.7389960000
S          2.8850960000        2.8031080000       -1.6801550000
S          2.1619750000        2.1339550000        2.2343570000
S          4.0148460000        2.2431140000        1.3579580000
S         -7.9101950000       -0.5675800000       -0.6393120000
S         -0.9440930000       -1.0592990000       -0.9481600000
S         -5.3805360000       -2.3083600000        0.1786610000
S          7.1110360000       -0.8223380000       -1.8306940000
S          7.1298460000       -2.0316570000       -0.1356240000
S          6.2711800000       -0.6387560000        1.2343890000
C          0.3140540000       -1.5418730000        2.0887520000
C         -1.1767510000       -1.7204850000        1.8191490000
C         -1.2122730000       -2.3000050000        0.3840450000
C         -0.0907100000       -3.3836110000        0.4848880000
C          0.8904180000       -2.8822800000        1.6176590000
H          0.5484690000       -1.3337320000        3.1333850000
H         -0.5629950000       -4.3100040000        0.8260070000
H          0.7144100000       -0.7125270000        1.4949280000
H         -1.5447920000       -2.5227720000        2.4706050000
H         -2.1694250000       -2.7730570000        0.1560390000
H          0.8727870000       -3.6055050000        2.4380140000
S         -2.3135180000       -0.3369100000        2.2666670000
S          2.6502100000       -2.8506700000        1.1128470000
S          2.2291290000       -2.4196670000       -0.8746870000
S          0.7660350000       -3.8870090000       -1.0405760000
S         -7.2833790000       -1.7455040000        0.9605060000
