63
conf-2-16.log	Energy: -5234461.4696417
C          1.8749310000        3.6390060000       -0.6686280000
C          0.3635360000        3.3315950000       -0.7338300000
C          0.0345630000        2.4683510000        0.5071810000
C          1.3945710000        2.1589170000        1.1746590000
C          2.3319810000        3.2960520000        0.7554030000
H          2.0978380000        4.6722830000       -0.9375090000
H          1.7580650000        1.2460030000        0.6971920000
H          2.4148060000        2.9935040000       -1.3713250000
H         -0.2401160000        4.2397380000       -0.7532020000
H         -0.4126990000        1.5289140000        0.1757290000
H          2.2233010000        4.1615120000        1.4202060000
C         -0.3071280000       -2.0939420000        1.7192120000
C         -0.2460960000       -0.6229240000        2.1946480000
C         -1.5471100000       -0.3596740000        3.0099790000
C         -2.3561680000       -1.6521680000        2.8408580000
C         -1.8194190000       -2.2365380000        1.5323600000
H         -2.0685420000        0.5152370000        2.6164750000
H         -2.0993990000       -2.3472120000        3.6447580000
H         -2.1192170000       -1.6064190000        0.6853820000
H          0.0465680000       -2.7728640000        2.5034440000
H         -0.2506560000       -0.0084330000        1.2940070000
H         -1.3254000000       -0.1577700000        4.0587820000
S          1.3164830000       -0.2449460000        3.0600080000
S          1.3644650000        1.8286820000        2.9790090000
S          0.5796760000       -2.5728870000        0.1611520000
S          4.1200770000        2.8953900000        0.8782170000
C         -2.6851690000        1.2603230000       -1.4926300000
C         -3.9704460000        0.7043450000       -2.1176190000
C         -4.7477960000        0.1978830000       -0.9006040000
C         -4.6729010000        1.4008240000        0.0286200000
C         -3.1632770000        1.7286560000       -0.0552250000
H         -4.2168290000       -0.6478210000       -0.4472410000
H         -4.9746830000        1.1805390000        1.0535740000
H         -5.2830670000        2.2281890000       -0.3505040000
H         -2.6506860000        1.1011640000        0.6787940000
H         -1.9404470000        0.4643990000       -1.3916690000
H         -4.5420670000        1.5341180000       -2.5494610000
S         -1.1727070000        3.2070920000        1.6826540000
S         -2.8052300000        3.4558490000        0.4321970000
S          0.0573710000        2.4151810000       -2.3024250000
S         -1.9706070000        2.5172050000       -2.6170750000
S         -4.1837940000       -1.5572970000        2.8221880000
S          1.7687450000       -1.0036140000       -0.4486640000
S         -2.5914670000       -3.8623590000        1.2818080000
S         -6.3420580000       -0.4552480000       -1.4724860000
S         -5.3344650000       -1.8525960000       -2.6426580000
S         -3.8408060000       -0.5538690000       -3.4397450000
C          5.5345420000       -0.8028590000        1.1939620000
C          4.1880250000       -0.1524100000        0.8492590000
C          3.3836890000       -1.3694730000        0.3535700000
C          4.3599560000       -2.2233720000       -0.4785170000
C          5.7664450000       -1.9111650000        0.1415760000
H          5.4503030000       -1.2647300000        2.1836960000
H          4.1353110000       -3.2858940000       -0.3743440000
H          6.3477830000       -0.0757170000        1.2411940000
H          3.7183730000        0.2761660000        1.7340580000
H          3.1320880000       -1.9359760000        1.2550500000
H          6.1571720000       -2.8210590000        0.5991160000
S          4.3288410000        1.2473950000       -0.3579180000
S          7.0006500000       -1.3468520000       -1.1036610000
S          6.1882050000       -2.4536190000       -2.6565430000
S          4.2499280000       -1.8199580000       -2.2762760000
S         -4.4619420000       -2.9552020000        1.2207430000
