62
conf-1-89.log	Energy: -4984612.5847995
C          4.9811990000       -1.9800180000       -2.3377440000
C          5.4038480000       -0.6760630000       -1.6308010000
C          5.3415760000       -1.1222170000       -0.1644950000
C          4.0057860000       -1.8689560000       -0.0794710000
C          3.9435610000       -2.6596040000       -1.3991420000
H          5.8626230000       -2.6216150000       -2.4350500000
H          3.2155860000       -1.1107250000       -0.0767870000
H          4.5879530000       -1.8165390000       -3.3438510000
H          6.4063040000       -0.3485650000       -1.9100280000
H          6.1583320000       -1.8486350000       -0.0486050000
H          4.2242780000       -3.7002740000       -1.2170640000
C          0.1402170000       -1.9434560000       -0.0978610000
C          0.8957610000       -2.0511320000        1.2383410000
C         -0.2042980000       -1.9993010000        2.3176410000
C         -1.4259220000       -1.3349270000        1.6366030000
C         -0.9814490000       -0.9385080000        0.2197840000
H          0.1498570000       -1.4488930000        3.1939520000
H         -2.2163210000       -2.0815190000        1.5443950000
H         -0.5752070000        0.0829600000        0.2313690000
H         -0.2954430000       -2.9100000000       -0.3731930000
H          1.5596270000       -1.1885220000        1.3540190000
H         -0.4705080000       -3.0033160000        2.6560400000
S          1.9400930000       -3.5576560000        1.3455580000
S          3.8585390000       -2.7975340000        1.4828550000
S          1.0796820000       -1.3009260000       -1.5309040000
S          2.2655460000       -2.8459520000       -2.1794530000
C          2.4186990000        2.8930730000        2.0406900000
C          1.3261310000        2.2716220000        1.1503850000
C          1.9885720000        2.1135280000       -0.2709340000
C          3.3908370000        2.7158080000       -0.0946490000
C          3.7392620000        2.4685050000        1.3765490000
H          2.3281790000        2.5842400000        3.0847540000
H          3.2962340000        3.8071120000       -0.1843670000
H          4.5945050000        3.0616290000        1.7044340000
H          2.3486940000        3.9850260000        2.0084230000
H          1.0383460000        1.2856950000        1.5283850000
S          5.7572140000        0.0477980000        1.1846750000
S          3.9756730000        0.7376300000        1.9391240000
S          4.2017390000        0.5757660000       -2.2354540000
S          4.6394890000        2.3986500000       -1.3964660000
S         -2.0618800000        0.0285340000        2.6927630000
S         -3.2804710000        1.1213040000        1.4411610000
S         -2.3152140000       -0.8222130000       -1.0519370000
S          0.9920310000        2.8328260000       -1.6176810000
S          0.3307910000        4.4261890000       -0.4579620000
S         -0.2482260000        3.2014930000        1.1212830000
C         -6.2997760000       -1.6558070000        0.6965810000
C         -4.8010260000       -1.3720150000        0.9784790000
C         -4.8098770000        0.1179500000        1.3776680000
C         -5.9107250000        0.7970960000        0.5526040000
C         -7.0215540000       -0.2900260000        0.5432300000
H         -6.7427090000       -2.2164520000        1.5234930000
H         -6.2589040000        1.7038400000        1.0515620000
H         -6.4211200000       -2.2580230000       -0.2067000000
H         -4.4601410000       -1.9473410000        1.8414480000
H         -5.1879590000        0.1087600000        2.4083110000
H         -7.6788180000       -0.1067130000        1.3987910000
S         -3.8107630000       -2.0794680000       -0.4377820000
S         -8.1146870000       -0.1369280000       -0.9079300000
S         -6.5063070000       -0.0848140000       -2.2143490000
S         -5.4688590000        1.3816540000       -1.1478760000
H          2.0614430000        1.0529070000       -0.5285340000
