LAMMPS data file. CGCMM style. atom_style full generated by VMD/TopoTools v1.7 on Mon Sep 12 12:17:01 AWST 2022

15 atoms
15 bonds
30 angles
45 dihedrals
0 impropers

4 atom types
5 bond types
8 angle types
13 dihedral types
0 improper types

-0.500000 0.500000  xlo xhi
-0.500000 0.500000  ylo yhi
-0.500000 0.500000  zlo zhi

Masses

 1 12.010700 # C001
 2 1.007940 # H002
 3 32.064999 # S003
 4 32.064999 # LS003

Pair Coeffs

 1 0.095100000000000 3.472990472926480 # C001
 2 0.015200000000000 2.846421404458380 # H002
 3 0.344000000000000 3.590321834105570 # LS003
 4 0.344000000000000 3.590321834105570 # S003

Bond Coeffs

 1 350.000000000000000 1.530000000000000 # C001-C001
 2 350.000000000000000 1.090000000000000 # C001-H002
 3 350.000000000000000 1.800000000000000 # C001-LS003
 4 350.000000000000000 2.070000000000000 # S003-S003
 5 350.000000000000000 1.800000000000000 # C001-S003

Angle Coeffs

 1 49.999999999999994 109.471000000000000 # C001-C001-C001
 2 49.999999999999994 109.471000000000000 # C001-C001-H002
 3 49.999999999999994 109.471000000000000 # C001-C001-LS003
 4 49.999999999999994 109.471000000000000 # H002-C001-H002
 5 49.999999999999994 109.471000000000000 # H002-C001-LS003
 6 49.999999999999994 92.100000000000000 # C001-S003-S003
 7 49.999999999999994 109.471000000000000 # C001-C001-S003
 8 49.999999999999994 109.471000000000000 # H002-C001-S003

 Dihedral Coeffs

 1 0.111111111111111 3 0 0.0 # C001-C001-C001-C001
 2 0.111111111111111 3 0 0.0 # C001-C001-C001-H002
 3 0.111111111111111 3 0 0.0 # C001-C001-C001-LS003
 4 0.111111111111111 3 0 0.0 # H002-C001-C001-H002
 5 0.111111111111111 3 0 0.0 # H002-C001-C001-LS003
 6 0.111111111111111 3 0 0.0 # LS003-C001-C001-LS003
 7 0.111111111111111 3 0 0.0 # C001-C001-S003-S003
 8 0.111111111111111 2 -180 0.0 # C001-S003-S003-C001
 9 0.111111111111111 3 0 0.0 # H002-C001-S003-S003
 10 0.111111111111111 3 0 0.0 # C001-C001-C001-S003
 11 0.111111111111111 3 0 0.0 # H002-C001-C001-S003
 12 0.111111111111111 3 0 0.0 # S003-C001-C001-S003
 13 0.111111111111111 3 0 0.0 # LS003-C001-C001-S003

 Atoms # full

 1 1 1  -0.074400000000000 5.280000 4.770000 3.930000 # C001 
 2 1 1  -0.074400000000000 4.650000 4.150000 5.190000 # C001 
 3 1 1  -0.073400000000000 3.450000 3.340000 4.660000 # C001 
 4 1 1  -0.068400000000000 2.880000 4.360000 3.670000 # C001 
 5 1 1  -0.073400000000000 4.120000 4.810000 2.900000 # C001 
 6 1 2   0.123200000000000 4.210000 4.970000 5.800000 # H002 
 7 1 2   0.108700000000000 2.740000 3.070000 5.470000 # H002 
 8 1 2   0.082700000000000 2.480000 5.220000 4.250000 # H002 
 9 1 2   0.082700000000000 2.060000 3.970000 3.030000 # H002 
 10 1 2  0.123200000000000 6.060000 4.100000 3.510000 # H002 
 11 1 3 -0.062300000000000 6.050000 6.380000 4.340000 # S003 
 12 1 3 -0.070300000000000 3.860000 6.360000 1.980000 # S003 
 13 1 2  0.108700000000000 4.320000 4.010000 2.150000 # H002 
 14 1 3 -0.062300000000000 5.820000 3.220000 6.230000 # S003 
 15 1 3 -0.070300000000000 3.950000 1.800000 3.820000 # S003 

 Bonds

 1 2 1 10
 2 1 1 2
 3 3 1 11
 4 1 1 5
 5 2 2 6
 6 3 2 14
 7 1 2 3
 8 2 3 7
 9 1 3 4
 10 3 3 15
 11 1 4 5
 12 2 4 9
 13 2 4 8
 14 2 5 13
 15 3 5 12

 Angles

 1 2 2 1 10
 2 5 10 1 11
 3 2 5 1 10
 4 3 2 1 11
 5 1 2 1 5
 6 3 5 1 11
 7 2 1 2 6
 8 3 1 2 14
 9 1 1 2 3
 10 5 6 2 14
 11 2 3 2 6
 12 3 3 2 14
 13 2 2 3 7
 14 1 2 3 4
 15 3 2 3 15
 16 2 4 3 7
 17 5 7 3 15
 18 3 4 3 15
 19 1 3 4 5
 20 2 3 4 9
 21 2 3 4 8
 22 2 5 4 9
 23 2 5 4 8
 24 4 8 4 9
 25 1 1 5 4
 26 2 1 5 13
 27 3 1 5 12
 28 2 4 5 13
 29 3 4 5 12
 30 5 12 5 13

 Dihedrals

 1 4 10 1 2 6
 2 5 10 1 2 14
 3 2 10 1 2 3
 4 5 11 1 2 6
 5 6 11 1 2 14
 6 3 11 1 2 3
 7 2 5 1 2 6
 8 3 5 1 2 14
 9 1 5 1 2 3
 10 2 10 1 5 4
 11 4 10 1 5 13
 12 5 10 1 5 12
 13 1 2 1 5 4
 14 2 2 1 5 13
 15 3 2 1 5 12
 16 3 11 1 5 4
 17 5 11 1 5 13
 18 6 11 1 5 12
 19 2 1 2 3 7
 20 1 1 2 3 4
 21 3 1 2 3 15
 22 4 6 2 3 7
 23 2 6 2 3 4
 24 5 6 2 3 15
 25 5 14 2 3 7
 26 3 14 2 3 4
 27 6 14 2 3 15
 28 1 2 3 4 5
 29 2 2 3 4 9
 30 2 2 3 4 8
 31 2 7 3 4 5
 32 4 7 3 4 9
 33 4 7 3 4 8
 34 3 15 3 4 5
 35 5 15 3 4 9
 36 5 15 3 4 8
 37 1 3 4 5 1
 38 2 3 4 5 13
 39 3 3 4 5 12
 40 2 9 4 5 1
 41 4 9 4 5 13
 42 5 9 4 5 12
 43 2 8 4 5 1
 44 4 8 4 5 13
 45 5 8 4 5 12

